<VTKFile type="UnstructuredGrid" version="0.1" byte_order="LittleEndian">
<UnstructuredGrid>
<Piece NumberOfPoints="150" NumberOfCells="343">
<Points>
<DataArray type="Float64" NumberOfComponents="3" format="ascii">
10.0787659 -30.0 2.0
5.0 -30.0 2.0
5.0 -30.0 0.0
10.0787659 -30.0 0.0
0.0 -10.0 2.0
0.0 -10.0 0.0
-10.0 -5.0 2.0
10.0787659 -4.83926439 2.0
10.0787659 -4.83926439 0.0
-10.0 -5.0 0.0
-5.0 -30.0 2.0
-5.0 -30.0 0.0
-10.0 -30.0 0.0
-10.0 -30.0 2.0
7.53938293 -30.0 2.0
7.53938293 -30.0 0.0
4.28571415 -27.1428566 2.0
3.57142854 -24.2857151 2.0
2.85714293 -21.4285717 2.0
2.14285707 -18.5714283 2.0
1.42857146 -15.7142859 2.0
0.714285731 -12.8571424 2.0
0.714285731 -12.8571424 0.0
1.42857146 -15.7142859 0.0
2.14285707 -18.5714283 0.0
2.85714293 -21.4285717 0.0
3.57142854 -24.2857151 0.0
4.28571415 -27.1428566 0.0
-7.13160467 -4.97703791 2.0
-4.26320982 -4.95407534 2.0
-1.39481461 -4.93111324 2.0
1.47358048 -4.90815115 2.0
4.34197569 -4.88518858 2.0
7.21037054 -4.86222649 2.0
7.21037054 -4.86222649 0.0
4.34197569 -4.88518858 0.0
1.47358048 -4.90815115 0.0
-1.39481461 -4.93111324 0.0
-4.26320982 -4.95407534 0.0
-7.13160467 -4.97703791 0.0
10.0787659 -7.9843564 2.0
10.0787659 -11.1294479 2.0
10.0787659 -14.2745399 2.0
10.0787659 -17.419632 2.0
10.0787659 -20.564724 2.0
10.0787659 -23.709816 2.0
10.0787659 -26.854908 2.0
10.0787659 -26.854908 0.0
10.0787659 -23.709816 0.0
10.0787659 -20.564724 0.0
10.0787659 -17.419632 0.0
10.0787659 -14.2745399 0.0
10.0787659 -11.1294479 0.0
10.0787659 -7.9843564 0.0
-0.714285731 -12.8571424 2.0
-1.42857146 -15.7142859 2.0
-2.14285707 -18.5714283 2.0
-2.85714293 -21.4285717 2.0
-3.57142854 -24.2857151 2.0
-4.28571415 -27.1428566 2.0
-4.28571415 -27.1428566 0.0
-3.57142854 -24.2857151 0.0
-2.85714293 -21.4285717 0.0
-2.14285707 -18.5714283 0.0
-1.42857146 -15.7142859 0.0
-0.714285731 -12.8571424 0.0
-7.5 -30.0 0.0
-10.0 -26.875 0.0
-10.0 -23.75 0.0
-10.0 -20.625 0.0
-10.0 -17.5 0.0
-10.0 -14.375 0.0
-10.0 -11.25 0.0
-10.0 -8.125 0.0
-10.0 -26.875 2.0
-10.0 -23.75 2.0
-10.0 -20.625 2.0
-10.0 -17.5 2.0
-10.0 -14.375 2.0
-10.0 -11.25 2.0
-10.0 -8.125 2.0
-7.5 -30.0 2.0
6.75602198 -27.7773209 0.0
-6.17440701 -7.5822134 0.0
-2.89960408 -7.9171505 0.0
0.00217852299 -7.12389708 0.0
2.93363309 -7.91016102 0.0
6.26260662 -7.52950335 0.0
-5.60493279 -21.8473244 0.0
4.40965557 -17.1956234 0.0
5.4729805 -21.9226913 0.0
-3.79354024 -16.6952934 0.0
-3.75516939 -14.154561 0.0
-3.22266221 -11.1643934 0.0
3.30220747 -11.1805677 0.0
3.96660614 -14.1811934 0.0
6.88281107 -24.8239422 0.0
-6.73130751 -27.7678947 0.0
-6.88232803 -24.8264599 0.0
4.4023838 -19.6768875 0.0
-4.76187229 -19.0317879 0.0
-7.62826443 -9.80294418 0.0
-6.64807034 -12.3742876 0.0
-6.63911009 -16.2344131 0.0
-7.49813843 -19.5591583 0.0
7.08261395 -19.2387238 0.0
7.06026268 -15.772007 0.0
6.78535748 -12.2961206 0.0
-5.3146019 -9.76819801 0.0
7.91918755 -22.0519791 0.0
5.39284611 -9.73394871 0.0
-7.99707985 -22.1215878 0.0
7.71966839 -9.73467541 0.0
-6.72908831 -27.7693024 2.0
-5.69332838 -8.24078941 2.0
-2.35677791 -7.61700249 2.0
0.124127962 -7.10509491 2.0
2.83045959 -8.0666275 2.0
6.234128 -7.74021006 2.0
2.56588364 -11.0590334 2.0
-3.07905412 -10.5721779 2.0
-4.26036549 -13.6688309 2.0
-4.44207621 -17.1072121 2.0
-4.403512 -19.6551266 2.0
-5.45060682 -21.9194908 2.0
-6.84626865 -24.8309689 2.0
6.76092768 -27.7857971 2.0
6.90459299 -24.8239365 2.0
5.47629118 -21.8913116 2.0
4.39592361 -19.6374397 2.0
4.40581656 -17.1155701 2.0
4.12828875 -13.6837263 2.0
-7.05323172 -19.2363682 2.0
-7.17909527 -15.7558317 2.0
-7.43819714 -12.7298489 2.0
-7.73475027 -10.2818699 2.0
7.08531141 -19.2067299 2.0
7.40566683 -12.579175 2.0
7.19710255 -15.7132292 2.0
5.16009474 -10.5294218 2.0
7.92474556 -22.0393028 2.0
-7.87002134 -22.0723648 2.0
7.79148436 -9.99252224 2.0
-5.64113903 -11.0987034 2.0
-2.56344533 -14.0021439 0.966390312
-8.40278912 -7.12607384 0.903879046
8.36413383 -28.1519699 0.999317884
6.28412771 -28.9932041 0.821902871
-8.71362591 -28.4829674 1.02909923
8.57117844 -6.92565584 1.0298866
</DataArray>
</Points>
<PointData Scalars="U,S,T">
<DataArray type="Float32" Name="U" NumberOfComponents="3" format="ascii">
0.0 0.0 0.0
0.0 0.0 0.0
0.0 0.0 0.0
0.0 0.0 0.0
0.0 0.0 0.0
0.0 0.0 0.0
0.0 0.0 0.0
0.0 0.0 0.0
0.0 0.0 0.0
0.0 0.0 0.0
0.0 0.0 0.0
0.0 0.0 0.0
0.0 0.0 0.0
0.0 0.0 0.0
0.0 0.0 0.0
0.0 0.0 0.0
0.0 0.0 0.0
0.0 0.0 0.0
0.0 0.0 0.0
0.0 0.0 0.0
0.0 0.0 0.0
0.0 0.0 0.0
0.0 0.0 0.0
0.0 0.0 0.0
0.0 0.0 0.0
0.0 0.0 0.0
0.0 0.0 0.0
0.0 0.0 0.0
0.0 0.0 0.0
0.0 0.0 0.0
0.0 0.0 0.0
0.0 0.0 0.0
0.0 0.0 0.0
0.0 0.0 0.0
0.0 0.0 0.0
0.0 0.0 0.0
0.0 0.0 0.0
0.0 0.0 0.0
0.0 0.0 0.0
0.0 0.0 0.0
0.0 0.0 0.0
0.0 0.0 0.0
0.0 0.0 0.0
0.0 0.0 0.0
0.0 0.0 0.0
0.0 0.0 0.0
0.0 0.0 0.0
0.0 0.0 0.0
0.0 0.0 0.0
0.0 0.0 0.0
0.0 0.0 0.0
0.0 0.0 0.0
0.0 0.0 0.0
0.0 0.0 0.0
0.0 0.0 0.0
0.0 0.0 0.0
0.0 0.0 0.0
0.0 0.0 0.0
0.0 0.0 0.0
0.0 0.0 0.0
0.0 0.0 0.0
0.0 0.0 0.0
0.0 0.0 0.0
0.0 0.0 0.0
0.0 0.0 0.0
0.0 0.0 0.0
0.0 0.0 0.0
0.0 0.0 0.0
0.0 0.0 0.0
0.0 0.0 0.0
0.0 0.0 0.0
0.0 0.0 0.0
0.0 0.0 0.0
0.0 0.0 0.0
0.0 0.0 0.0
0.0 0.0 0.0
0.0 0.0 0.0
0.0 0.0 0.0
0.0 0.0 0.0
0.0 0.0 0.0
0.0 0.0 0.0
0.0 0.0 0.0
0.0 0.0 0.0
0.0 0.0 0.0
0.0 0.0 0.0
0.0 0.0 0.0
0.0 0.0 0.0
0.0 0.0 0.0
0.0 0.0 0.0
0.0 0.0 0.0
0.0 0.0 0.0
0.0 0.0 0.0
0.0 0.0 0.0
0.0 0.0 0.0
0.0 0.0 0.0
0.0 0.0 0.0
0.0 0.0 0.0
0.0 0.0 0.0
0.0 0.0 0.0
0.0 0.0 0.0
0.0 0.0 0.0
0.0 0.0 0.0
0.0 0.0 0.0
0.0 0.0 0.0
0.0 0.0 0.0
0.0 0.0 0.0
0.0 0.0 0.0
0.0 0.0 0.0
0.0 0.0 0.0
0.0 0.0 0.0
0.0 0.0 0.0
0.0 0.0 0.0
0.0 0.0 0.0
0.0 0.0 0.0
0.0 0.0 0.0
0.0 0.0 0.0
0.0 0.0 0.0
0.0 0.0 0.0
0.0 0.0 0.0
0.0 0.0 0.0
0.0 0.0 0.0
0.0 0.0 0.0
0.0 0.0 0.0
0.0 0.0 0.0
0.0 0.0 0.0
0.0 0.0 0.0
0.0 0.0 0.0
0.0 0.0 0.0
0.0 0.0 0.0
0.0 0.0 0.0
0.0 0.0 0.0
0.0 0.0 0.0
0.0 0.0 0.0
0.0 0.0 0.0
0.0 0.0 0.0
0.0 0.0 0.0
0.0 0.0 0.0
0.0 0.0 0.0
0.0 0.0 0.0
0.0 0.0 0.0
0.0 0.0 0.0
0.0 0.0 0.0
0.0 0.0 0.0
0.0 0.0 0.0
0.0 0.0 0.0
0.0 0.0 0.0
0.0 0.0 0.0
0.0 0.0 0.0
0.0 0.0 0.0
0.0 0.0 0.0
</DataArray>
<DataArray type="Float32" Name="S" NumberOfComponents="1" format="ascii">
0.0
0.0
0.0
0.0
0.0
0.0
0.0
0.0
0.0
0.0
0.0
0.0
0.0
0.0
0.0
0.0
0.0
0.0
0.0
0.0
0.0
0.0
0.0
0.0
0.0
0.0
0.0
0.0
0.0
0.0
0.0
0.0
0.0
0.0
0.0
0.0
0.0
0.0
0.0
0.0
0.0
0.0
0.0
0.0
0.0
0.0
0.0
0.0
0.0
0.0
0.0
0.0
0.0
0.0
0.0
0.0
0.0
0.0
0.0
0.0
0.0
0.0
0.0
0.0
0.0
0.0
0.0
0.0
0.0
0.0
0.0
0.0
0.0
0.0
0.0
0.0
0.0
0.0
0.0
0.0
0.0
0.0
0.0
0.0
0.0
0.0
0.0
0.0
0.0
0.0
0.0
0.0
0.0
0.0
0.0
0.0
0.0
0.0
0.0
0.0
0.0
0.0
0.0
0.0
0.0
0.0
0.0
0.0
0.0
0.0
0.0
0.0
0.0
0.0
0.0
0.0
0.0
0.0
0.0
0.0
0.0
0.0
0.0
0.0
0.0
0.0
0.0
0.0
0.0
0.0
0.0
0.0
0.0
0.0
0.0
0.0
0.0
0.0
0.0
0.0
0.0
0.0
0.0
0.0
0.0
0.0
0.0
0.0
0.0
0.0
</DataArray>
<DataArray type="Float32" Name="T" NumberOfComponents="1" format="ascii">
0.0
0.0
0.0
0.0
0.0
0.0
0.0
0.0
0.0
0.0
0.0
0.0
0.0
0.0
0.0
0.0
0.0
0.0
0.0
0.0
0.0
0.0
0.0
0.0
0.0
0.0
0.0
0.0
0.0
0.0
0.0
0.0
0.0
0.0
0.0
0.0
0.0
0.0
0.0
0.0
0.0
0.0
0.0
0.0
0.0
0.0
0.0
0.0
0.0
0.0
0.0
0.0
0.0
0.0
0.0
0.0
0.0
0.0
0.0
0.0
0.0
0.0
0.0
0.0
0.0
0.0
0.0
0.0
0.0
0.0
0.0
0.0
0.0
0.0
0.0
0.0
0.0
0.0
0.0
0.0
0.0
0.0
0.0
0.0
0.0
0.0
0.0
0.0
0.0
0.0
0.0
0.0
0.0
0.0
0.0
0.0
0.0
0.0
0.0
0.0
0.0
0.0
0.0
0.0
0.0
0.0
0.0
0.0
0.0
0.0
0.0
0.0
0.0
0.0
0.0
0.0
0.0
0.0
0.0
0.0
0.0
0.0
0.0
0.0
0.0
0.0
0.0
0.0
0.0
0.0
0.0
0.0
0.0
0.0
0.0
0.0
0.0
0.0
0.0
0.0
0.0
0.0
0.0
0.0
0.0
0.0
0.0
0.0
0.0
0.0
</DataArray>
</PointData>
<Cells>
<DataArray type="Int32" Name="connectivity" format="ascii">
121 55 91 144
144 120 54 65
145 114 135 101
145 73 83 101
145 28 6 80
145 28 114 83
145 9 6 39
145 73 9 39
146 126 127 96
14 15 147 146
146 15 147 82
146 47 127 46
1 27 147 2
146 46 14 0
146 46 0 3
146 47 46 3
148 12 81 13
148 81 12 66
148 113 81 66
148 81 74 13
148 74 113 97
149 87 142 118
149 34 33 8
149 87 53 112
149 33 118 40
149 87 33 34
149 33 7 8
149 40 53 7
116 86 85 36
30 85 36 116
115 120 84 5
101 143 114 135
120 114 115 108
115 108 84 120
83 115 84 38
83 108 84 115
146 82 47 15
146 96 47 82
27 147 2 82
15 2 147 82
146 82 126 96
16 96 127 126
129 89 136 105
129 105 128 99
130 95 23 20
130 89 24 23
129 128 18 99
95 138 137 131
89 24 129 130
129 136 89 130
131 119 22 21
94 131 95 139
130 95 106 89
139 131 95 137
137 107 51 106
138 136 130 106
131 22 119 94
149 8 53 34
137 51 107 52
112 142 110 107
142 110 107 139
118 117 86 110
118 139 110 142
139 94 119 117
110 118 142 87
82 146 126 147
137 107 139 142
118 117 32 86
131 139 94 119
138 136 106 50
139 117 110 94
106 138 137 95
132 141 104 88
123 88 100 62
124 61 88 62
125 98 61 60
98 88 125 61
85 5 86 116
125 141 88 98
97 113 125 74
98 141 75 125
147 146 126 14
141 76 104 111
124 125 141 88
114 143 108 120
143 120 93 108
84 120 93 5
38 29 83 115
115 37 85 84
144 121 55 54
144 93 121 120
121 120 93 143
118 87 110 86
128 105 140 109
129 136 128 105
128 25 99 90
128 99 25 18
1 147 126 14
25 99 24 18
138 106 51 50
109 128 127 140
136 105 106 50
130 89 106 136
128 140 105 136
129 105 99 89
126 147 16 82
44 140 136 49
128 105 90 99
128 127 17 90
146 126 46 127
127 96 48 47
144 54 120 121
138 51 137 42
127 90 109 96
127 96 109 48
145 101 135 73
114 101 83 108
144 120 65 93
135 79 80 73
134 102 133 71
144 54 55 64
145 6 28 39
144 92 91 121
133 71 102 103
108 120 93 84
76 75 69 111
123 132 88 124
141 88 111 104
88 125 61 124
76 111 69 104
148 113 66 97
135 102 72 101
143 101 108 102
75 68 69 111
133 77 78 71
76 69 70 104
56 63 91 55
129 89 99 24
5 120 93 65
149 112 142 87
122 56 91 55
122 100 132 133
143 102 108 93
142 87 112 110
134 71 72 102
104 103 133 100
68 67 98 74
132 77 133 104
125 97 98 60
141 88 98 111
148 97 66 67
148 13 67 12
11 59 60 113
148 13 74 67
131 94 95 22
95 139 107 94
123 91 56 63
149 112 53 40
21 20 22 131
139 107 94 110
138 106 137 51
130 20 131 95
137 95 107 106
86 117 5 94
112 142 107 52
136 89 106 105
138 95 130 131
130 23 95 89
148 81 113 74
24 129 130 19
140 109 105 49
25 128 17 90
45 48 127 140
1 126 147 16
146 96 127 47
148 67 74 97
1 16 147 27
115 84 85 5
145 80 114 28
96 26 16 17
133 71 103 70
135 73 101 72
104 77 133 70
145 80 135 114
132 104 76 77
115 5 4 120
128 109 90 105
99 24 18 129
90 109 128 127
127 96 17 90
146 46 126 14
48 127 140 109
146 15 3 0
127 47 48 45
127 17 96 16
32 34 33 87
118 86 32 87
149 40 118 142
87 32 35 86
117 5 94 119
117 94 86 110
116 31 117 86
119 5 4 117
142 52 40 41
86 31 35 36
117 86 31 32
59 113 125 60
28 38 29 83
132 100 88 104
124 61 57 58
124 61 58 125
122 91 56 123
122 133 121 103
62 57 56 123
77 104 76 70
121 143 93 102
102 121 92 93
113 81 66 10
134 121 102 143
63 100 123 91
125 60 61 58
74 97 98 125
113 10 11 59
113 66 11 10
60 113 125 97
113 11 66 97
60 59 58 125
67 97 98 74
141 75 76 111
124 62 57 61
75 98 68 111
113 97 60 11
82 96 27 16
123 62 63 56
123 62 124 88
91 64 55 63
149 112 40 142
144 92 121 93
133 100 132 104
123 100 63 62
145 83 73 39
123 122 100 132
65 54 4 120
134 79 72 78
108 114 115 83
90 17 26 96
47 46 45 127
146 47 3 15
70 104 103 133
133 70 77 71
44 48 45 140
49 44 43 136
140 49 44 48
138 50 51 42
50 43 42 138
137 139 107 95
136 49 50 43
96 82 126 16
137 52 41 51
40 112 53 52
149 118 33 87
90 17 25 26
138 130 95 106
136 105 50 49
149 53 8 7
115 5 85 116
116 85 115 30
5 4 116 115
29 83 114 28
115 38 29 37
133 102 121 103
145 80 9 73
145 39 28 83
145 114 101 83
137 51 41 42
86 35 31 32
119 5 21 4
37 30 85 36
116 36 30 31
115 37 84 38
116 36 31 86
20 22 131 95
119 22 21 5
5 86 116 117
33 87 118 32
87 35 32 34
149 34 53 87
145 80 6 9
23 20 19 130
149 7 33 40
115 29 30 37
140 136 49 105
137 41 52 142
95 20 22 23
120 65 5 4
119 5 94 22
142 107 52 137
91 100 123 122
18 25 128 17
117 4 116 5
138 50 43 136
144 92 93 65
52 142 40 112
121 102 92 103
123 124 62 57
125 74 75 98
1 2 147 14
14 2 147 15
96 16 26 27
75 74 68 98
140 109 49 48
115 30 85 37
111 98 141 75
118 110 139 117
132 88 124 141
115 29 83 114
129 24 18 19
148 66 12 67
132 141 76 104
123 88 132 100
100 103 133 122
83 38 39 28
130 23 24 19
121 92 91 103
146 15 0 14
103 121 122 91
144 55 91 64
16 147 27 82
144 65 64 92
144 64 91 92
122 121 55 91
91 122 103 100
134 71 133 78
134 133 102 121
135 101 143 102
134 78 72 71
135 79 72 134
108 101 143 114
144 65 54 64
135 134 102 143
145 80 73 135
135 134 72 102
135 72 79 73
</DataArray>
<DataArray type="Int32" Name="offsets" format="ascii">
4
8
12
16
20
24
28
32
36
40
44
48
52
56
60
64
68
72
76
80
84
88
92
96
100
104
108
112
116
120
124
128
132
136
140
144
148
152
156
160
164
168
172
176
180
184
188
192
196
200
204
208
212
216
220
224
228
232
236
240
244
248
252
256
260
264
268
272
276
280
284
288
292
296
300
304
308
312
316
320
324
328
332
336
340
344
348
352
356
360
364
368
372
376
380
384
388
392
396
400
404
408
412
416
420
424
428
432
436
440
444
448
452
456
460
464
468
472
476
480
484
488
492
496
500
504
508
512
516
520
524
528
532
536
540
544
548
552
556
560
564
568
572
576
580
584
588
592
596
600
604
608
612
616
620
624
628
632
636
640
644
648
652
656
660
664
668
672
676
680
684
688
692
696
700
704
708
712
716
720
724
728
732
736
740
744
748
752
756
760
764
768
772
776
780
784
788
792
796
800
804
808
812
816
820
824
828
832
836
840
844
848
852
856
860
864
868
872
876
880
884
888
892
896
900
904
908
912
916
920
924
928
932
936
940
944
948
952
956
960
964
968
972
976
980
984
988
992
996
1000
1004
1008
1012
1016
1020
1024
1028
1032
1036
1040
1044
1048
1052
1056
1060
1064
1068
1072
1076
1080
1084
1088
1092
1096
1100
1104
1108
1112
1116
1120
1124
1128
1132
1136
1140
1144
1148
1152
1156
1160
1164
1168
1172
1176
1180
1184
1188
1192
1196
1200
1204
1208
1212
1216
1220
1224
1228
1232
1236
1240
1244
1248
1252
1256
1260
1264
1268
1272
1276
1280
1284
1288
1292
1296
1300
1304
1308
1312
1316
1320
1324
1328
1332
1336
1340
1344
1348
1352
1356
1360
1364
1368
1372
</DataArray>
<DataArray type="UInt8" Name="types" format="ascii">
10
10
10
10
10
10
10
10
10
10
10
10
10
10
10
10
10
10
10
10
10
10
10
10
10
10
10
10
10
10
10
10
10
10
10
10
10
10
10
10
10
10
10
10
10
10
10
10
10
10
10
10
10
10
10
10
10
10
10
10
10
10
10
10
10
10
10
10
10
10
10
10
10
10
10
10
10
10
10
10
10
10
10
10
10
10
10
10
10
10
10
10
10
10
10
10
10
10
10
10
10
10
10
10
10
10
10
10
10
10
10
10
10
10
10
10
10
10
10
10
10
10
10
10
10
10
10
10
10
10
10
10
10
10
10
10
10
10
10
10
10
10
10
10
10
10
10
10
10
10
10
10
10
10
10
10
10
10
10
10
10
10
10
10
10
10
10
10
10
10
10
10
10
10
10
10
10
10
10
10
10
10
10
10
10
10
10
10
10
10
10
10
10
10
10
10
10
10
10
10
10
10
10
10
10
10
10
10
10
10
10
10
10
10
10
10
10
10
10
10
10
10
10
10
10
10
10
10
10
10
10
10
10
10
10
10
10
10
10
10
10
10
10
10
10
10
10
10
10
10
10
10
10
10
10
10
10
10
10
10
10
10
10
10
10
10
10
10
10
10
10
10
10
10
10
10
10
10
10
10
10
10
10
10
10
10
10
10
10
10
10
10
10
10
10
10
10
10
10
10
10
10
10
10
10
10
10
10
10
10
10
10
10
10
10
10
10
10
10
10
10
10
10
10
10
10
10
10
10
10
10
10
10
10
10
10
10
10
10
10
10
10
10
</DataArray>
</Cells>
</Piece>
</UnstructuredGrid>
</VTKFile>
