<VTKFile type="UnstructuredGrid" version="0.1" byte_order="LittleEndian">
<UnstructuredGrid>
<Piece NumberOfPoints="150" NumberOfCells="343">
<Points>
<DataArray type="Float64" NumberOfComponents="3" format="ascii">
10.0787659 -30.0 2.0
5.0 -30.0 2.0
5.0 -30.0 -3.1281915781351337e-27
10.0787659 -30.0 -2.7252601196831996e-27
-0.1251542050447158 -17.44897344778656 1.7848886805254427
-0.015906908420072356 -17.48873763053154 -0.3560736751768401
-9.209672023875225 -8.239095972747426 0.734889271090551
9.10438274402591 -8.218051015567882 1.6564844504150913
9.03336272781368 -8.141625726904682 -0.35531703829053984
-9.14397591345952 -8.460880581270613 -1.281349142929499
-5.0 -30.0 2.0
-5.0 -30.0 -6.863555078040458e-27
-10.0 -30.0 -3.2879705495694594e-27
-10.0 -30.0 2.0
7.53938293 -30.0 2.0
7.53938293 -30.0 -8.981536579765483e-27
4.696857865028071 -27.936122369791917 2.1361400664512242
4.57420588188572 -25.966223835787204 2.1303153460235604
4.292175388801462 -24.121570595767164 2.096426933263093
3.758407578581249 -22.367381839883137 2.0282840294207007
2.9529477765829775 -20.69395176469144 1.988099009849346
1.7977087245441767 -19.06509034946331 1.9277114988224928
1.6974019539400245 -19.081525487034295 -0.2854569387856767
2.892589641997531 -20.6855005312201 -0.2493192802420754
3.7075097452438257 -22.407409386729913 -0.19894000273618934
4.245925437517879 -24.130941873488126 -0.13935669281964289
4.538418831523349 -25.97687068581466 -0.09181928340718101
4.649805501419255 -27.924414115154946 -0.08050166859323127
-6.3195175339285665 -9.40600963198964 0.8602312773831773
-3.3986710300331717 -10.957210741246397 0.9312273384642459
-1.1547836253956976 -14.229324386007715 1.3487151227792367
0.7604942028686517 -14.208778671750276 1.8250290256076305
3.4291300100257347 -11.223010714553025 1.8406051689969884
6.275043338531578 -9.484887857217789 1.7276121097507129
6.149770722514882 -9.339641360695964 -0.2872176003576607
3.2736889495477293 -10.973214386658594 -0.22225647133322293
1.1234360704519464 -14.348071234295421 -0.7427407091210704
-0.7579763146336529 -14.435728374125462 -1.2303712965359508
-3.4399758180216407 -11.456341451947635 -1.2315468117730135
-6.290585371358835 -9.64174045942144 -1.1639417749008962
10.402527713732448 -11.35257928736359 1.56363898469585
11.413199499501932 -14.552582134187121 1.5605090584091488
12.027880413592735 -17.56137803826918 1.6281822149070497
12.251459326921028 -20.427837241563832 1.754918566673814
12.162674631777461 -23.164829733049658 1.8718925784705838
11.725492728444046 -25.721101430452638 1.948741484721214
11.072249162652088 -27.913907002202688 2.067374497958667
11.009328321582283 -27.960516195084193 -0.19487873418744495
11.649564870077521 -25.707844573352236 -0.21399514896805077
12.088488499411152 -23.179540325838566 -0.24966579565399502
12.184460088340469 -20.470212733052282 -0.3393958684403446
11.96847092944973 -17.59320738523848 -0.44129666786209526
11.354831283115832 -14.557285393045403 -0.4673538376054387
10.377902013962391 -11.312342608999419 -0.44578873947927145
-1.8686730035512915 -19.013300237567606 1.8540946971812415
-3.039458257441088 -20.642386733316435 1.9216108113673929
-3.8392667232770967 -22.36249751700412 1.926371645712584
-4.369480667343387 -24.074805605367924 1.946072290095513
-4.615578699601932 -25.92444320937587 1.985422400542912
-4.692418135954936 -27.882833443338374 2.0582306582575893
-4.70178062381572 -27.972501491254892 -0.15844256291939995
-4.581514561371608 -25.998628663101112 -0.23724684694388548
-4.315054097529317 -24.130787280783625 -0.2854779232216771
-3.7710241082665887 -22.36277010257388 -0.2973406480925036
-2.974010999226674 -20.722108493139398 -0.31705750719141246
-1.7718473733620124 -19.079969187499564 -0.3349214542557338
-7.5 -30.0 -9.257633690433058e-27
-11.012556194798968 -28.00412435108175 -0.18605863194682778
-11.652648772380331 -25.829493240113894 -0.28833817622752583
-12.098333050015562 -23.298767909601164 -0.43032958099887364
-12.186725087884048 -20.5282189405994 -0.5213060129628243
-11.974812022532987 -17.719690990585278 -0.5376750870837939
-11.398372590086382 -14.756205073352042 -0.701416769282604
-10.419378627028562 -11.583598713488849 -0.9466665832920726
-10.980680479602832 -27.929161954979847 2.067745872667592
-11.64652386069348 -25.696511438173225 1.8735915084480552
-12.114913846047498 -23.199131321647226 1.6851912483664382
-12.241380181409417 -20.542410190393944 1.5915746868767426
-12.04287713708771 -17.661193686150945 1.523260785885043
-11.500756465364113 -14.627777132753604 1.32705088604865
-10.518349173012831 -11.373144583247617 1.0561491906429445
-7.5 -30.0 2.0
7.20308025808551 -28.342465943584614 -0.13624354967681768
-6.432643128867599 -12.64797310773503 -0.8251300562660051
-3.3685399900239164 -15.076013579671216 -0.7078492118631178
0.05967110856924677 -15.924022856315112 -0.7282493904714284
3.3619580993094367 -14.980216290099412 -0.38698078782672085
6.390749594131467 -12.436787930920499 -0.39109227226387133
-7.240935471209643 -24.22373225847074 -0.32903564179362477
6.207444371657472 -20.982131935322634 -0.26128150884699197
7.031800927835122 -24.28486132800415 -0.14879769753294836
-5.593847812625267 -20.752883416168903 -0.37857873630120364
-5.353748179873286 -18.919411002543296 -0.42417563942941994
-4.190241743723455 -16.974182489557844 -0.4834123871836997
4.184791233528668 -16.920059464695047 -0.36556139936418613
5.498363593711521 -18.890009454849103 -0.3279800909373251
8.002799572170865 -26.311509448883545 -0.1411745039523766
-7.204434218900597 -28.36715132843165 -0.162975790502688
-8.05598131406889 -26.338570110621447 -0.2537512399059608
6.111624849944153 -22.776856743209088 -0.19679280040919098
-6.613036463474669 -22.2702921958837 -0.3511332199175925
-8.630037424288279 -14.10902239792409 -0.7011410050349398
-8.189729105133255 -16.66286237744738 -0.5165019647162746
-8.636080156375636 -19.797789575117342 -0.4483896618920672
-9.520660733372328 -22.390439862288943 -0.4235840516698781
9.036986299097553 -22.18346938348911 -0.22088378356439345
8.975874266750829 -19.410515324588754 -0.34501949554465955
8.263802735376649 -16.528564529840057 -0.43105624631330497
-6.249920034236294 -15.022173429941963 -0.6572808002204569
9.62729187418159 -24.319831776854095 -0.18107704922863466
6.270303434874851 -14.925918625824085 -0.39526687005013494
-9.765624708975642 -24.392544229993483 -0.35254156658920355
8.626613220556806 -13.920922554173151 -0.4154226978986827
-7.211053706735605 -28.27783733308932 2.071471492564216
-6.338836000575559 -13.322751826334423 1.3495140700146397
-2.845815716113045 -14.969785771806851 1.500475575935432
-0.02471323109576669 -15.673479695398761 1.7179464067586214
3.2442064767097936 -15.11164179193188 1.8313341941317196
6.489518680166403 -12.676394521301276 1.7152588144556153
3.351676242202625 -17.107709169257138 1.8253003370819605
-4.004654756993437 -16.583650696457774 1.687344771473726
-5.917721800022724 -18.343812336088238 1.728131095659976
-6.346778775538205 -20.846459813961488 1.798478498364172
-6.245311306058317 -22.70276060473246 1.8685032235698509
-7.108810473741417 -24.22203871560363 1.8857674347261695
-8.031438831088128 -26.26492686025416 1.9519977905129635
7.226313273441558 -28.351163375407523 2.1163719499385882
8.069005437716848 -26.287102369331915 2.075199677028634
7.068470888035407 -24.20790419948231 2.0494243088491677
6.130675610022542 -22.685787377488182 2.000413311613906
6.2383432634736575 -20.884520505817143 1.929980230524458
5.68183877057022 -18.39522030439263 1.815715268767369
-9.121703612335933 -22.103503492018845 1.730518625516758
-9.253113434525243 -19.31745835277547 1.6628312579235185
-9.152434210779663 -16.663241469684845 1.5363491953464008
-8.975250602168133 -14.377923362848293 1.3826979372367025
9.084425411189534 -22.071439458079123 1.9249663836152457
9.002564162305529 -16.583265129599134 1.6466926200246725
9.166006545318458 -19.22074614907699 1.7667492056605745
6.242117929393369 -15.70654737473118 1.7256889740591133
9.68189087514125 -24.270807695162798 1.9909431186486852
-9.66616740695879 -24.282860328657716 1.8126663335504885
8.795606665011059 -14.126834361505367 1.634173458795824
-6.9321573046546545 -15.82820680337845 1.534220912098173
-4.0578348784707465 -19.177456980307074 0.6725390900067028
-8.482504892420678 -11.146007455726263 -0.060473666666482906
8.841618273792406 -28.66306483225789 0.9762189067072432
6.4863043708087655 -29.19487222941867 0.8007215964083247
-9.127905283497581 -28.922600889498185 1.0075047579757452
8.463258530107971 -10.905037653730682 0.6394539649674293
</DataArray>
</Points>
<PointData Scalars="U,S,T">
<DataArray type="Float32" Name="U" NumberOfComponents="3" format="ascii">
1.6900469097801286e-27 -4.577411033807317e-27 2.5482787082490792e-27
-4.353036678848731e-28 -1.843216234619317e-27 1.2102176880552638e-27
-1.135512251199571e-28 -2.7108469702643433e-27 -1.0111427681795888e-27
2.631349639862355e-27 -3.9194509430709886e-27 -8.396400886724652e-28
-0.0357583442984969 -2.1282781279390095 -0.06146037699282056
-0.004544830977174588 -2.1396393230090163 -0.10173533576490137
0.22580799317849862 -0.9254559922135479 -0.3614602082599398
-0.2783951874211776 -0.9653676073050972 -0.09814729988154823
-0.29868662062467577 -0.9435318105441974 -0.1015191537974429
0.2445783104401236 -0.9888230232201841 -0.36609975512281134
-7.719143628798028e-28 -4.134405292569088e-27 2.376949572007572e-27
1.3229612789318734e-27 2.0394947632727576e-28 -2.345394041049901e-27
-2.5792187591871018e-27 -5.503371347718971e-27 -1.0576177448688425e-27
-2.51089292853861e-27 -3.6322350560545746e-27 1.2451521078436685e-27
1.784324745539281e-28 -4.595874069564496e-27 3.1208340465036973e-27
3.115459750199267e-28 -5.325458491181867e-27 -3.029101391377161e-27
0.11746963286516242 -0.22664736279768724 0.03889716184320216
0.2865078119673468 -0.48014535308205536 0.03723295600671789
0.4100092739432719 -0.7694282559334699 0.02755055236085839
0.4615858595946383 -1.0845581542523173 0.008081151263017523
0.43553609045227387 -1.422761675626118 -0.00340028290024291
0.3095494267269015 -1.773699414132367 -0.020653857479360715
0.2808903494114256 -1.7783951677240895 -0.08155912536740903
0.4182909091421431 -1.420347037491462 -0.07123408006922034
0.44704362149822924 -1.0959945962085509 -0.05684000078180813
0.3967950021479603 -0.7721057638537568 -0.039816197948494746
0.27628294043523927 -0.4831873102327643 -0.026234080973493914
0.10402610040550032 -0.2233021471871309 -0.023000476740927794
0.23202489602040094 -1.2654204919970353 -0.3256482064620536
0.24701108284765688 -1.7151815432132504 -0.3053636175817557
0.0685802813155067 -2.6566317560021973 -0.1860813934917665
-0.20373893632325052 -2.657322149071499 -0.04999170696937638
-0.2608130514212268 -1.8108063241579972 -0.04554138028670912
-0.26723634327670076 -1.3207603906336434 -0.07782511149993675
-0.3030285192814748 -1.2792613916274216 -0.08206217153090067
-0.30522478298637556 -1.7394359447596024 -0.06350184895248381
-0.1000412598708854 -2.6971200240844118 -0.21221163117757647
0.1819537986760859 -2.715604324035852 -0.3515346561532483
0.23520971485094647 -1.857790317699331 -0.3518705176495442
0.24029122818317622 -1.332772156977562 -0.3325547928289316
0.09250337535212015 -0.9623493963895855 -0.12467457580130908
0.38126674271482996 -0.9780383526248806 -0.12556884045462946
0.556889861026489 -0.939096610934041 -0.10623365288377805
0.6207695505488598 -0.8594872118753706 -0.07002326666468088
0.5954024947935561 -0.7428873522998953 -0.036602120437012935
0.47049337955543924 -0.5746529801293181 -0.014645290079672694
0.28385236075773757 -0.30257114348647923 0.019249856559612654
0.26587497759493595 -0.31588805573834344 -0.05567963833927621
0.4487997057364306 -0.5708653066720699 -0.06114147113374825
0.5742064569746088 -0.7470903788110219 -0.07133308447260664
0.6016269109544122 -0.8715944951577984 -0.09697024812586898
0.5399157226999136 -0.9481907100681393 -0.12608476224639092
0.3645901094616559 -0.9793821408701178 -0.13352966788736867
0.08546746113209933 -0.9508532025712659 -0.12736821127991527
-0.32982493501466015 -1.7589022393050222 -0.041687229376859265
-0.4602533706974578 -1.4080288095189744 -0.022396911037941572
-0.48468847236488727 -1.083162633429741 -0.021036672653585445
-0.4320964963838263 -0.7560668301051165 -0.01540791711559156
-0.29832861702912405 -0.46820803125024546 -0.00416502841632336
-0.11620113884426787 -0.2114219552395331 0.016637330930735533
-0.11887613537592143 -0.23704139750139874 -0.04526930369126137
-0.2885960061061761 -0.4894038751717488 -0.0677848134125512
-0.4165460478655229 -0.7720615945096108 -0.08156512092050303
-0.46519058236188837 -1.0832405150211115 -0.08495447088361054
-0.4415541540647716 -1.4308064551826893 -0.0905878591976004
-0.30216046924629864 -1.7779505107141653 -0.09569184407313809
-1.3430883566050973e-27 -5.8575664875040755e-27 -3.1008061405987224e-27
-0.2893017699425638 -0.32260695745193124 -0.053159609127666686
-0.4721853635372402 -0.5941409257468309 -0.0823823360650155
-0.5995237285758792 -0.7639336884574821 -0.12295130885683903
-0.624778596538306 -0.8652054115998358 -0.14894457513226644
-0.5642320064380049 -0.9556259973100872 -0.15362145345255798
-0.3995350257389767 -1.0017728781005912 -0.20040479122366275
-0.11982246486531513 -0.9881710609968228 -0.27047616665495683
-0.2801944227436663 -0.301189129994241 0.019355963619310742
-0.4704353887695665 -0.5561461251923482 -0.03611671187199224
-0.6042610988707154 -0.7354660918992046 -0.08994535760960691
-0.6403943375455518 -0.8692600543982689 -0.11669294660667591
-0.5836791820250652 -0.9389124817574104 -0.13621120403289036
-0.4287875615326097 -0.9650791807867423 -0.192271175414733
-0.14809976371795913 -0.928041309499317 -0.2696716598163805
-1.2899644015343604e-27 -5.377932258145252e-27 4.0045292811642095e-27
0.12773093659585905 -0.16147001245274914 -0.03892672847909485
-0.07378174824789749 -1.4473599164957294 -0.23575144464752082
-0.13398168857827375 -2.0453894513346387 -0.202242631960987
0.016426453022629545 -2.5143216503757513 -0.20807125442051697
0.12237857408839893 -2.020015791456979 -0.11056593937917346
0.036612278323264504 -1.4020813088344328 -0.11174064921836888
-0.4674293374884728 -0.6789736738487857 -0.09401018336962581
0.5136539433306981 -1.081859581520759 -0.07465185967062005
0.4453772650957444 -0.6749057222869038 -0.04251362786658189
-0.5143735921786545 -1.1593114331911194 -0.1081653532289599
-0.45673679710666204 -1.361385715012376 -0.12119303983703536
-0.2764512953495688 -1.6599397398736748 -0.13811782490970445
0.25216678957960886 -1.6398547899128757 -0.10444611410414201
0.4376449867747109 -1.3453760156711778 -0.09370859741073405
0.31999671490595855 -0.4250192139667298 -0.040335572557835125
-0.13517905968588576 -0.17121617955190285 -0.04656451157219868
-0.3353295097339707 -0.4320314887489884 -0.0725003542588541
0.48835458569832324 -0.8857054980597427 -0.05622651440266221
-0.5289040495641965 -0.9252869416810606 -0.10032377711934407
-0.2862208555109484 -1.2303080622640337 -0.20032600143862855
-0.4404739328952254 -1.2253070792706862 -0.14757198991899756
-0.5705628761073317 -1.018107564319246 -0.1281113319692042
-0.5778635152492413 -0.8089375892254171 -0.12102401476284769
0.5583920997421515 -0.8413558809968935 -0.06310965244701117
0.5473175962145143 -1.0395738070253622 -0.09857699872710912
0.422412930107604 -1.209269694240021 -0.12315892751817444
-0.2672337526389523 -1.5011358342691383 -0.18779451434878142
0.488029806909021 -0.647957907672602 -0.05173629977963651
0.25070209282137473 -1.4834199759497428 -0.11293339144299845
-0.5052985311359011 -0.6488446942838557 -0.10072616188264494
0.2591270944447913 -1.196070612620904 -0.11869219939973041
-0.1377043990673159 -0.14529569516837437 0.020420426446916818
-0.18443074873588136 -1.4519892618098298 -0.18585312285304792
-0.13972508746087736 -2.100795223373379 -0.14272126401854754
-0.04252605517022663 -2.448109938685352 -0.08058674092621748
0.11821339620279067 -2.012861226266242 -0.04819023024818913
0.07296876576182114 -1.4103384175146403 -0.08135462444137131
0.22451217205788598 -1.7281930769306015 -0.049914189405242504
-0.2644573248552741 -1.7175636561307872 -0.08933006529330098
-0.4735303742922117 -1.3357089817394907 -0.07767682981149505
-0.5442007330109191 -1.0683564897032767 -0.057577571895992434
-0.5262283731595213 -0.8707525727806995 -0.0375705075515005
-0.473772472497549 -0.6578708330296058 -0.032637875792541814
-0.3386200517394656 -0.4097022743583299 -0.013714916996303964
0.132967312411873 -0.16153322154500338 0.03324912855387847
0.3326892707762403 -0.41804739123768503 0.021485622008167723
0.454908488010113 -0.6618835998520824 0.014121231099736606
0.4956434285778651 -0.8709564792823301 0.00011808903250783577
0.5235790581353261 -1.0768429730906055 -0.0200056484216349
0.44387143444862803 -1.346141144112172 -0.05265278035225388
-0.5909919692388402 -0.8191815120053804 -0.07699467842381102
-0.5925766184357875 -1.0176076150787023 -0.09633392630760958
-0.48978202022276673 -1.12382644848138 -0.13247165847251552
-0.354428666333759 -1.1703009893852228 -0.176372017932442
0.5711754289112908 -0.8184884451654567 -0.021438176109971813
0.4562563806587154 -1.1440257513140288 -0.10094496570732267
0.5625439986624107 -1.0021476997362737 -0.06664308409704317
0.3091494826838125 -1.4791787356374706 -0.07837457884035004
0.5020415186117821 -0.6375728271893631 -0.0025876803861168084
-0.5131845905596559 -0.6315701510450593 -0.05352390469987582
0.286892087146009 -1.1812320347158083 -0.10452186891558396
-0.3688623641870504 -1.351286686679552 -0.13307973940059303
-0.42696844242022025 -1.4786608800877346 -0.08395749199814609
-0.022775934977346698 -1.1485524616360783 -0.2755293464762264
0.1364241267978299 -0.1460271235022542 -0.006599707797933255
0.05776476023107552 -0.05761946554819151 -0.0060517927404798956
-0.11836553528502418 -0.12560956842805324 -0.006169849149787432
-0.030834259969161625 -1.1369662324944767 -0.1115521814380056
</DataArray>
<DataArray type="Float32" Name="S" NumberOfComponents="1" format="ascii">
-0.006599707797933255
-4.353036678848731e-28
-4.595874069564496e-27
-0.006599707797933255
-2.012861226266242
-0.0357583442984969
-0.2755293464762264
-1.1369662324944767
-0.1115521814380056
-0.14809976371795913
-1.3430883566050973e-27
-0.13517905968588576
-0.006169849149787432
-0.12560956842805324
3.115459750199267e-28
-0.1460271235022542
0.11746963286516242
0.3967950021479603
0.00011808903250783577
0.4182909091421431
-1.3453760156711778
-0.049914189405242504
-0.004544830977174588
-1.0768429730906055
-0.0200056484216349
-0.7694282559334699
-0.040335572557835125
0.03889716184320216
0.23520971485094647
-2.100795223373379
-2.100795223373379
-0.08058674092621748
-0.11174064921836888
-0.1115521814380056
-1.1369662324944767
-1.4020813088344328
-2.448109938685352
0.0685802813155067
-1.4473599164957294
-0.23575144464752082
-0.13352966788736867
-1.1440257513140288
0.5399157226999136
-0.06664308409704317
-0.0025876803861168084
-0.036602120437012935
-0.31588805573834344
-0.1460271235022542
0.488029806909021
-0.0025876803861168084
-1.0021476997362737
-1.1440257513140288
0.3645901094616559
-0.1115521814380056
-0.08395749199814609
-0.057577571895992434
-0.4165460478655229
-0.473772472497549
-0.04526930369126137
-0.23704139750139874
0.020420426446916818
-0.4165460478655229
-0.0375705075515005
-0.0375705075515005
-0.30216046924629864
-1.4786608800877346
-0.12560956842805324
-1.3430883566050973e-27
-0.03611671187199224
-0.7354660918992046
-1.0176076150787023
-0.5836791820250652
-1.1703009893852228
-0.3995350257389767
-0.5561461251923482
-0.3353295097339707
-0.07699467842381102
-0.09633392630760958
-1.12382644848138
-0.176372017932442
-1.1485524616360783
-0.14529569516837437
0.05776476023107552
-0.07378174824789749
-0.14272126401854754
-0.14272126401854754
-2.1396393230090163
-0.3030285192814748
-0.8707525727806995
0.4182909091421431
0.4453772650957444
-0.5143735921786545
-0.4415541540647716
-0.08395749199814609
-0.049914189405242504
0.4376449867747109
0.31999671490595855
-0.14529569516837437
-0.6488446942838557
0.48835458569832324
-0.5442007330109191
-1.5011358342691383
-0.48978202022276673
-0.1081653532289599
-0.5131845905596559
0.5711754289112908
0.5235790581353261
-1.1812320347158083
-0.2672337526389523
-0.6375728271893631
-1.4103384175146403
-0.5052985311359011
0.286892087146009
-0.1377043990673159
-0.2862208555109484
-0.13972508746087736
-0.04819023024818913
0.25070209282137473
0.07296876576182114
0.22451217205788598
-0.2644573248552741
-0.5925766184357875
-1.1593114331911194
-0.5262283731595213
-0.07699467842381102
-0.3386200517394656
-0.040335572557835125
0.28385236075773757
0.02755055236085839
0.4956434285778651
0.5235790581353261
-0.00340028290024291
-0.0375705075515005
-1.12382644848138
-1.1703009893852228
-0.354428666333759
0.6016269109544122
0.422412930107604
0.5625439986624107
-0.08135462444137131
0.5020415186117821
-0.8191815120053804
-0.9793821408701178
-0.48978202022276673
-0.42696844242022025
-0.022775934977346698
0.1364241267978299
-0.22664736279768724
-0.11836553528502418
-0.030834259969161625
</DataArray>
<DataArray type="Float32" Name="T" NumberOfComponents="1" format="ascii">
-0.006599707797933255
-4.353036678848731e-28
-4.595874069564496e-27
-0.006599707797933255
-2.012861226266242
-0.0357583442984969
-0.2755293464762264
-1.1369662324944767
-0.1115521814380056
-0.14809976371795913
-1.3430883566050973e-27
-0.13517905968588576
-0.006169849149787432
-0.12560956842805324
3.115459750199267e-28
-0.1460271235022542
0.11746963286516242
0.3967950021479603
0.00011808903250783577
0.4182909091421431
-1.3453760156711778
-0.049914189405242504
-0.004544830977174588
-1.0768429730906055
-0.0200056484216349
-0.7694282559334699
-0.040335572557835125
0.03889716184320216
0.23520971485094647
-2.100795223373379
-2.100795223373379
-0.08058674092621748
-0.11174064921836888
-0.1115521814380056
-1.1369662324944767
-1.4020813088344328
-2.448109938685352
0.0685802813155067
-1.4473599164957294
-0.23575144464752082
-0.13352966788736867
-1.1440257513140288
0.5399157226999136
-0.06664308409704317
-0.0025876803861168084
-0.036602120437012935
-0.31588805573834344
-0.1460271235022542
0.488029806909021
-0.0025876803861168084
-1.0021476997362737
-1.1440257513140288
0.3645901094616559
-0.1115521814380056
-0.08395749199814609
-0.057577571895992434
-0.4165460478655229
-0.473772472497549
-0.04526930369126137
-0.23704139750139874
0.020420426446916818
-0.4165460478655229
-0.0375705075515005
-0.0375705075515005
-0.30216046924629864
-1.4786608800877346
-0.12560956842805324
-1.3430883566050973e-27
-0.03611671187199224
-0.7354660918992046
-1.0176076150787023
-0.5836791820250652
-1.1703009893852228
-0.3995350257389767
-0.5561461251923482
-0.3353295097339707
-0.07699467842381102
-0.09633392630760958
-1.12382644848138
-0.176372017932442
-1.1485524616360783
-0.14529569516837437
0.05776476023107552
-0.07378174824789749
-0.14272126401854754
-0.14272126401854754
-2.1396393230090163
-0.3030285192814748
-0.8707525727806995
0.4182909091421431
0.4453772650957444
-0.5143735921786545
-0.4415541540647716
-0.08395749199814609
-0.049914189405242504
0.4376449867747109
0.31999671490595855
-0.14529569516837437
-0.6488446942838557
0.48835458569832324
-0.5442007330109191
-1.5011358342691383
-0.48978202022276673
-0.1081653532289599
-0.5131845905596559
0.5711754289112908
0.5235790581353261
-1.1812320347158083
-0.2672337526389523
-0.6375728271893631
-1.4103384175146403
-0.5052985311359011
0.286892087146009
-0.1377043990673159
-0.2862208555109484
-0.13972508746087736
-0.04819023024818913
0.25070209282137473
0.07296876576182114
0.22451217205788598
-0.2644573248552741
-0.5925766184357875
-1.1593114331911194
-0.5262283731595213
-0.07699467842381102
-0.3386200517394656
-0.040335572557835125
0.28385236075773757
0.02755055236085839
0.4956434285778651
0.5235790581353261
-0.00340028290024291
-0.0375705075515005
-1.12382644848138
-1.1703009893852228
-0.354428666333759
0.6016269109544122
0.422412930107604
0.5625439986624107
-0.08135462444137131
0.5020415186117821
-0.8191815120053804
-0.9793821408701178
-0.48978202022276673
-0.42696844242022025
-0.022775934977346698
0.1364241267978299
-0.22664736279768724
-0.11836553528502418
-0.030834259969161625
</DataArray>
</PointData>
<Cells>
<DataArray type="Int32" Name="connectivity" format="ascii">
121 55 91 144
144 120 54 65
145 114 135 101
145 73 83 101
145 28 6 80
145 28 114 83
145 9 6 39
145 73 9 39
146 126 127 96
14 15 147 146
146 15 147 82
146 47 127 46
1 27 147 2
146 46 14 0
146 46 0 3
146 47 46 3
148 12 81 13
148 81 12 66
148 113 81 66
148 81 74 13
148 74 113 97
149 87 142 118
149 34 33 8
149 87 53 112
149 33 118 40
149 87 33 34
149 33 7 8
149 40 53 7
116 86 85 36
30 85 36 116
115 120 84 5
101 143 114 135
120 114 115 108
115 108 84 120
83 115 84 38
83 108 84 115
146 82 47 15
146 96 47 82
27 147 2 82
15 2 147 82
146 82 126 96
16 96 127 126
129 89 136 105
129 105 128 99
130 95 23 20
130 89 24 23
129 128 18 99
95 138 137 131
89 24 129 130
129 136 89 130
131 119 22 21
94 131 95 139
130 95 106 89
139 131 95 137
137 107 51 106
138 136 130 106
131 22 119 94
149 8 53 34
137 51 107 52
112 142 110 107
142 110 107 139
118 117 86 110
118 139 110 142
139 94 119 117
110 118 142 87
82 146 126 147
137 107 139 142
118 117 32 86
131 139 94 119
138 136 106 50
139 117 110 94
106 138 137 95
132 141 104 88
123 88 100 62
124 61 88 62
125 98 61 60
98 88 125 61
85 5 86 116
125 141 88 98
97 113 125 74
98 141 75 125
147 146 126 14
141 76 104 111
124 125 141 88
114 143 108 120
143 120 93 108
84 120 93 5
38 29 83 115
115 37 85 84
144 121 55 54
144 93 121 120
121 120 93 143
118 87 110 86
128 105 140 109
129 136 128 105
128 25 99 90
128 99 25 18
1 147 126 14
25 99 24 18
138 106 51 50
109 128 127 140
136 105 106 50
130 89 106 136
128 140 105 136
129 105 99 89
126 147 16 82
44 140 136 49
128 105 90 99
128 127 17 90
146 126 46 127
127 96 48 47
144 54 120 121
138 51 137 42
127 90 109 96
127 96 109 48
145 101 135 73
114 101 83 108
144 120 65 93
135 79 80 73
134 102 133 71
144 54 55 64
145 6 28 39
144 92 91 121
133 71 102 103
108 120 93 84
76 75 69 111
123 132 88 124
141 88 111 104
88 125 61 124
76 111 69 104
148 113 66 97
135 102 72 101
143 101 108 102
75 68 69 111
133 77 78 71
76 69 70 104
56 63 91 55
129 89 99 24
5 120 93 65
149 112 142 87
122 56 91 55
122 100 132 133
143 102 108 93
142 87 112 110
134 71 72 102
104 103 133 100
68 67 98 74
132 77 133 104
125 97 98 60
141 88 98 111
148 97 66 67
148 13 67 12
11 59 60 113
148 13 74 67
131 94 95 22
95 139 107 94
123 91 56 63
149 112 53 40
21 20 22 131
139 107 94 110
138 106 137 51
130 20 131 95
137 95 107 106
86 117 5 94
112 142 107 52
136 89 106 105
138 95 130 131
130 23 95 89
148 81 113 74
24 129 130 19
140 109 105 49
25 128 17 90
45 48 127 140
1 126 147 16
146 96 127 47
148 67 74 97
1 16 147 27
115 84 85 5
145 80 114 28
96 26 16 17
133 71 103 70
135 73 101 72
104 77 133 70
145 80 135 114
132 104 76 77
115 5 4 120
128 109 90 105
99 24 18 129
90 109 128 127
127 96 17 90
146 46 126 14
48 127 140 109
146 15 3 0
127 47 48 45
127 17 96 16
32 34 33 87
118 86 32 87
149 40 118 142
87 32 35 86
117 5 94 119
117 94 86 110
116 31 117 86
119 5 4 117
142 52 40 41
86 31 35 36
117 86 31 32
59 113 125 60
28 38 29 83
132 100 88 104
124 61 57 58
124 61 58 125
122 91 56 123
122 133 121 103
62 57 56 123
77 104 76 70
121 143 93 102
102 121 92 93
113 81 66 10
134 121 102 143
63 100 123 91
125 60 61 58
74 97 98 125
113 10 11 59
113 66 11 10
60 113 125 97
113 11 66 97
60 59 58 125
67 97 98 74
141 75 76 111
124 62 57 61
75 98 68 111
113 97 60 11
82 96 27 16
123 62 63 56
123 62 124 88
91 64 55 63
149 112 40 142
144 92 121 93
133 100 132 104
123 100 63 62
145 83 73 39
123 122 100 132
65 54 4 120
134 79 72 78
108 114 115 83
90 17 26 96
47 46 45 127
146 47 3 15
70 104 103 133
133 70 77 71
44 48 45 140
49 44 43 136
140 49 44 48
138 50 51 42
50 43 42 138
137 139 107 95
136 49 50 43
96 82 126 16
137 52 41 51
40 112 53 52
149 118 33 87
90 17 25 26
138 130 95 106
136 105 50 49
149 53 8 7
115 5 85 116
116 85 115 30
5 4 116 115
29 83 114 28
115 38 29 37
133 102 121 103
145 80 9 73
145 39 28 83
145 114 101 83
137 51 41 42
86 35 31 32
119 5 21 4
37 30 85 36
116 36 30 31
115 37 84 38
116 36 31 86
20 22 131 95
119 22 21 5
5 86 116 117
33 87 118 32
87 35 32 34
149 34 53 87
145 80 6 9
23 20 19 130
149 7 33 40
115 29 30 37
140 136 49 105
137 41 52 142
95 20 22 23
120 65 5 4
119 5 94 22
142 107 52 137
91 100 123 122
18 25 128 17
117 4 116 5
138 50 43 136
144 92 93 65
52 142 40 112
121 102 92 103
123 124 62 57
125 74 75 98
1 2 147 14
14 2 147 15
96 16 26 27
75 74 68 98
140 109 49 48
115 30 85 37
111 98 141 75
118 110 139 117
132 88 124 141
115 29 83 114
129 24 18 19
148 66 12 67
132 141 76 104
123 88 132 100
100 103 133 122
83 38 39 28
130 23 24 19
121 92 91 103
146 15 0 14
103 121 122 91
144 55 91 64
16 147 27 82
144 65 64 92
144 64 91 92
122 121 55 91
91 122 103 100
134 71 133 78
134 133 102 121
135 101 143 102
134 78 72 71
135 79 72 134
108 101 143 114
144 65 54 64
135 134 102 143
145 80 73 135
135 134 72 102
135 72 79 73
</DataArray>
<DataArray type="Int32" Name="offsets" format="ascii">
4
8
12
16
20